VARIABLES = "x", "y", "z","rho","u","v","w","p" 
ZONE n=50  e=16  VARLOCATION=([4-8]=CellCentered)
DATAPACKING=BLOCK, ZONETYPE=FEBRICK, SOLUTIONTIME=5.20161
0.00000000e+00	0.00000000e+00	0.00000000e+00	0.00000000e+00	0.00000000e+00	0.00000000e+00	0.00000000e+00	0.00000000e+00	0.00000000e+00	0.00000000e+00	2.50000000e-01	2.50000000e-01	2.50000000e-01	2.50000000e-01	2.50000000e-01	2.50000000e-01	2.50000000e-01	2.50000000e-01	2.50000000e-01	2.50000000e-01	5.00000000e-01	5.00000000e-01	5.00000000e-01	5.00000000e-01	5.00000000e-01	5.00000000e-01	5.00000000e-01	5.00000000e-01	5.00000000e-01	5.00000000e-01	7.50000000e-01	7.50000000e-01	7.50000000e-01	7.50000000e-01	7.50000000e-01	7.50000000e-01	7.50000000e-01	7.50000000e-01	7.50000000e-01	7.50000000e-01	1.00000000e+00	1.00000000e+00	1.00000000e+00	1.00000000e+00	1.00000000e+00	1.00000000e+00	1.00000000e+00	1.00000000e+00	1.00000000e+00	1.00000000e+00	0.00000000e+00	0.00000000e+00	2.50000000e-01	2.50000000e-01	5.00000000e-01	5.00000000e-01	7.50000000e-01	7.50000000e-01	1.00000000e+00	1.00000000e+00	0.00000000e+00	0.00000000e+00	2.50000000e-01	2.50000000e-01	5.00000000e-01	5.00000000e-01	7.50000000e-01	7.50000000e-01	1.00000000e+00	1.00000000e+00	0.00000000e+00	0.00000000e+00	2.50000000e-01	2.50000000e-01	5.00000000e-01	5.00000000e-01	7.50000000e-01	7.50000000e-01	1.00000000e+00	1.00000000e+00	0.00000000e+00	0.00000000e+00	2.50000000e-01	2.50000000e-01	5.00000000e-01	5.00000000e-01	7.50000000e-01	7.50000000e-01	1.00000000e+00	1.00000000e+00	0.00000000e+00	0.00000000e+00	2.50000000e-01	2.50000000e-01	5.00000000e-01	5.00000000e-01	7.50000000e-01	7.50000000e-01	1.00000000e+00	1.00000000e+00
0.00000000e+00	1.25000000e-01	0.00000000e+00	1.25000000e-01	0.00000000e+00	1.25000000e-01	0.00000000e+00	1.25000000e-01	0.00000000e+00	1.25000000e-01	0.00000000e+00	1.25000000e-01	0.00000000e+00	1.25000000e-01	0.00000000e+00	1.25000000e-01	0.00000000e+00	1.25000000e-01	0.00000000e+00	1.25000000e-01	0.00000000e+00	1.25000000e-01	0.00000000e+00	1.25000000e-01	0.00000000e+00	1.25000000e-01	0.00000000e+00	1.25000000e-01	0.00000000e+00	1.25000000e-01	0.00000000e+00	1.25000000e-01	0.00000000e+00	1.25000000e-01	0.00000000e+00	1.25000000e-01	0.00000000e+00	1.25000000e-01	0.00000000e+00	1.25000000e-01	0.00000000e+00	1.25000000e-01	0.00000000e+00	1.25000000e-01	0.00000000e+00	1.25000000e-01	0.00000000e+00	1.25000000e-01	0.00000000e+00	1.25000000e-01	
1.33765165e+00	1.33765168e+00	1.33765168e+00	1.33765165e+00	2.22294443e+00	2.22294588e+00	2.22294588e+00	2.22294443e+00	5.08903051e+00	5.08904422e+00	5.08904422e+00	5.08903051e+00	1.61567723e+01	1.61568703e+01	1.61568703e+01	1.61567723e+01	
7.52757888e-01	7.52757664e-01	7.52757664e-01	7.52757888e-01	6.05021553e-01	6.05021232e-01	6.05021232e-01	6.05021553e-01	3.44763261e-01	3.44762902e-01	3.44762902e-01	3.44763261e-01	1.06907257e-01	1.06907096e-01	1.06907096e-01	1.06907257e-01	
-1.00211774e-07	-5.46648720e-08	5.46648715e-08	1.00211773e-07	-1.15818251e-07	-2.21693658e-08	2.21693658e-08	1.15818252e-07	-5.38985710e-08	1.60689215e-08	-1.60689223e-08	5.38985705e-08	4.56984086e-08	6.35833794e-08	-6.35833794e-08	-4.56984086e-08	
0.00000000e+00	0.00000000e+00	0.00000000e+00	0.00000000e+00	0.00000000e+00	0.00000000e+00	0.00000000e+00	0.00000000e+00	0.00000000e+00	0.00000000e+00	0.00000000e+00	0.00000000e+00	0.00000000e+00	0.00000000e+00	0.00000000e+00	0.00000000e+00	
1.96257057e+03	1.96257058e+03	1.96257058e+03	1.96257057e+03	1.95291557e+03	1.95291557e+03	1.95291557e+03	1.95291557e+03	1.94828264e+03	1.94828262e+03	1.94828262e+03	1.94828264e+03	1.94086804e+03	1.94086801e+03	1.94086801e+03	1.94086804e+03	
1	3	4	2	11	13	14	12	
3	5	6	4	13	15	16	14	
5	7	8	6	15	17	18	16	
7	9	10	8	17	19	20	18	
11	13	14	12	21	23	24	22	
13	15	16	14	23	25	26	24	
15	17	18	16	25	27	28	26	
17	19	20	18	27	29	30	28	
21	23	24	22	31	33	34	32	
23	25	26	24	33	35	36	34	
25	27	28	26	35	37	38	36	
27	29	30	28	37	39	40	38	
31	33	34	32	41	43	44	42	
33	35	36	34	43	45	46	44	
35	37	38	36	45	47	48	46	
37	39	40	38	47	49	50	48	
